HEADER
"PSFversion" "1.00"
"I0n" "NAND3"
"V1n V2n V0n" "analogLib_vdc_spectre"
"V4n" "analogLib_vpulse_spectre"
"C0n" "analogLib_cap_spectre"
