HEADER
"PSFversion" "1.00"
"design" "(\"ELEC402\" \"NAND3_TB\" \"schematic\" \"\")"
"simulator" "spectre"
"temperature" "27"
"host" ""
"date" "Nov  8 17:33:05 2019"
"title" ""
"analysisList" "()"
END
